 Gaussian 16, Revision A.03,
 Gaussian 16:  ES64L-G16RevA.03 25-Dec-2016

 ---------------------
 # hf/6-31g nosymm opt
 ---------------------

 -------------------
 Title Card Required
 -------------------
 Symbolic Z-matrix:
 Charge =  0 Multiplicity = 1

 SCF Done:  E(RHF) =  -118.209164039     A.U. after   10 cycles
 SCF Done:  E(RHF) =  -118.213126981     A.U. after    9 cycles
 SCF Done:  E(RHF) =  -118.214714013     A.U. after    9 cycles
 SCF Done:  E(RHF) =  -118.215083587     A.U. after   11 cycles
 SCF Done:  E(RHF) =  -118.216135777     A.U. after    9 cycles
 SCF Done:  E(RHF) =  -118.216168500     A.U. after    8 cycles
 SCF Done:  E(RHF) =  -118.216173721     A.U. after    7 cycles
 Optimization completed.
    -- Stationary point found.

                          Input orientation:
 ---------------------------------------------------------------------
 Center     Atomic      Atomic             Coordinates (Angstroms)
 Number     Number       Type             X           Y           Z
 ---------------------------------------------------------------------
      1          6           0       -1.442387    3.331488    0.803886
      2          6           0       -1.334297    1.856441    0.407154
      3          1           0       -0.574882    3.889482    0.466168
      4          1           0       -2.321831    3.789394    0.362406
      5          1           0       -1.512918    3.447056    1.879956
      6          6           0       -1.232623    1.657897   -1.107861
      7          1           0       -0.465216    1.416232    0.887906
      8          1           0       -2.198386    1.316960    0.784709
      9          1           0       -2.105253    2.060558   -1.612264
     10          1           0       -0.358314    2.161199   -1.508280
     11          1           0       -1.156782    0.606813   -1.364267
 ---------------------------------------------------------------------

 Alpha  occ. eigenvalues --  -11.21829 -11.20819 -11.20815  -1.05670  -0.93085
 Alpha  occ. eigenvalues --   -0.80579  -0.62571  -0.59788  -0.55064  -0.53182
 Alpha  occ. eigenvalues --   -0.47242  -0.47184  -0.46538
 Alpha virt. eigenvalues --    0.23243   0.29434   0.29711   0.29787   0.31707
 Alpha virt. eigenvalues --    0.34094   0.35020   0.35176   0.38794   0.43616
 Alpha virt. eigenvalues --    0.73587   0.74974   0.76735   0.79019   0.80155

 Mulliken charges:
               1
     1  C   -0.446623
     2  C   -0.301436
     3  H    0.148004
     4  H    0.148002
     5  H    0.150736
     6  C   -0.446638
     7  H    0.150603
     8  H    0.150605
     9  H    0.148005
    10  H    0.148004
    11  H    0.150737
 Sum of Mulliken charges =  -0.00000

 Dipole moment (field-independent basis, Debye):
    X=              0.0003    Y=             -0.0432    Z=              0.0378  Tot=              0.0574
 Quadrupole moment (field-independent basis, Debye-Ang):
   XX=            -21.7179   YY=            -22.3645   ZZ=            -22.2003
   XY=              0.0924   XZ=             -0.0137   YZ=             -0.0507

 Normal termination of Gaussian 16 at Mon Jul  3 23:57:55 2017.
