 Gaussian 16, Revision A.03,
 Gaussian 16:  ES64L-G16RevA.03 25-Dec-2016

 ---------------------
 #rhf/3-21g nosymm opt
 ---------------------

 ----
 name
 ----
 Symbolic Z-matrix:
 Charge =  0 Multiplicity = 1

 SCF Done:  E(RHF) =  -78.7891911332     A.U. after    9 cycles
 SCF Done:  E(RHF) =  -78.7916730793     A.U. after    8 cycles
 SCF Done:  E(RHF) =  -78.7929357394     A.U. after    8 cycles
 SCF Done:  E(RHF) =  -78.7938524512     A.U. after    8 cycles
 SCF Done:  E(RHF) =  -78.7939380986     A.U. after    7 cycles
 SCF Done:  E(RHF) =  -78.7939479913     A.U. after    6 cycles
 Optimization completed.
    -- Stationary point found.

                          Input orientation:
 ---------------------------------------------------------------------
 Center     Atomic      Atomic             Coordinates (Angstroms)
 Number     Number       Type             X           Y           Z
 ---------------------------------------------------------------------
      1          6           0        0.697045   -0.203510   -0.259718
      2          1           0        1.361758   -0.437103    0.564257
      3          1           0        1.143070    0.599740   -0.835212
      4          1           0        0.630245   -1.077924   -0.897122
      5          6           0       -0.697255    0.203542    0.259718
      6          1           0       -0.630367    1.077514    0.897720
      7          1           0       -1.361745    0.437852   -0.564235
      8          1           0       -1.143595   -0.599983    0.834582
 ---------------------------------------------------------------------

 Alpha  occ. eigenvalues --  -11.15206 -11.15185  -1.01879  -0.84621  -0.59933
 Alpha  occ. eigenvalues --   -0.59933  -0.50282  -0.48690  -0.48690
 Alpha virt. eigenvalues --    0.27931   0.34035   0.34035   0.34284   0.37087
 Alpha virt. eigenvalues --    0.37087   0.42448   0.90429   0.90429   0.97398
 Alpha virt. eigenvalues --    1.07341   1.08622   1.08623   1.29250   1.36727

 Mulliken charges:
               1
     1  C   -0.600936
     2  H    0.200312
     3  H    0.200312
     4  H    0.200312
     5  C   -0.600936
     6  H    0.200312
     7  H    0.200312
     8  H    0.200312
 Sum of Mulliken charges =  -0.00000

 Dipole moment (field-independent basis, Debye):
    X=             -0.0000    Y=             -0.0000    Z=             -0.0000  Tot=              0.0000
 Quadrupole moment (field-independent basis, Debye-Ang):
   XX=            -15.4156   YY=            -15.0639   ZZ=            -15.0845
   XY=              0.1122   XZ=              0.1433   YZ=             -0.0418

 Normal termination of Gaussian 16 at Mon May 29 23:05:03 2017.
