 Gaussian 09, Revision E.01,
 Gaussian 09:  ES64L-G09RevE.01 30-Nov-2015

 -----------------------
 #rhf/3-21g nosymm force
 -----------------------

 ----
 name
 ----
 Symbolic Z-matrix:
 Charge =  0 Multiplicity = 1

                          Input orientation:
 ---------------------------------------------------------------------
 Center     Atomic      Atomic             Coordinates (Angstroms)
 Number     Number       Type             X           Y           Z
 ---------------------------------------------------------------------
      1          6           0        0.437377    0.343531    0.322123
      2          1           0        1.592011    0.651430    0.557828
      3          1           0        1.202264   -0.775588   -0.193403
      4          1           0        0.460982   -0.430613    1.927742
      5          6           0       -1.156926   -0.062909   -0.805599
      6          1           0       -0.907590    0.038475   -2.005232
      7          1           0       -0.752478   -0.714891    0.141251
      8          1           0       -0.876486    0.950694    0.055281
 ---------------------------------------------------------------------

 SCF Done:  E(RHF) =  -78.3009211530     A.U. after   14 cycles

 Alpha  occ. eigenvalues --  -11.27125 -11.25161  -0.97541  -0.79347  -0.62146
 Alpha  occ. eigenvalues --   -0.54005  -0.41691  -0.39156  -0.33627
 Alpha virt. eigenvalues --    0.08448   0.13989   0.16020   0.23155   0.31849
 Alpha virt. eigenvalues --    0.33036   0.34644   0.95950   0.97911   1.00636
 Alpha virt. eigenvalues --    1.06541   1.10796   1.11958   1.14407   1.19748

 Mulliken charges:
               1
     1  C   -0.747062
     2  H    0.260499
     3  H    0.084960
     4  H   -0.010893
     5  C   -0.505112
     6  H    0.227196
     7  H    0.339649
     8  H    0.350763
 Sum of Mulliken charges =  -0.00000

 Dipole moment (field-independent basis, Debye):
    X=              0.8498    Y=             -0.3383    Z=             -0.9969  Tot=              1.3529
 Quadrupole moment (field-independent basis, Debye-Ang):
   XX=            -18.3617   YY=            -17.9261   ZZ=            -15.3653
   XY=              0.4801   XZ=              0.8151   YZ=             -0.1199

 Normal termination of Gaussian 09 at Sun Oct 16 14:11:41 2016.
