 Gaussian 09, Revision B.01,
 Gaussian 09:  EM64L-G09RevB.01 12-Aug-2010

 -------------------
 # opt freq hf/6-31g
 -------------------

 -------------------
 Ethane Optimization
 -------------------
 Symbolic Z-matrix:
 Charge =  0 Multiplicity = 1

 SCF Done:  E(RHF) =  -79.1974723245     A.U. after    9 cycles
 SCF Done:  E(RHF) =  -79.1975658388     A.U. after   11 cycles
 SCF Done:  E(RHF) =  -79.1975722469     A.U. after   10 cycles
 Optimization completed.
    -- Stationary point found.
 Normal termination of Gaussian 09 at Sat Jul  8 19:21:54 2017.

 --------------------------------------------------------------
 #N Geom=AllCheck Guess=TCheck SCRF=Check GenChk RHF/6-31G Freq
 --------------------------------------------------------------

 Ethane Optimization
 -------------------
 Redundant internal coordinates taken from checkpoint file:
  min1007.chk
 Charge =  0 Multiplicity = 1

                         Standard orientation:
 ---------------------------------------------------------------------
 Center     Atomic      Atomic             Coordinates (Angstroms)
 Number     Number       Type             X           Y           Z
 ---------------------------------------------------------------------
      1          6           0       -0.765060    0.000000    0.000000
      2          1           0       -1.157438    0.580329   -0.827791
      3          1           0       -1.157438    0.426726    0.916473
      4          1           0       -1.157445   -1.007050   -0.088682
      5          6           0        0.765060    0.000000    0.000000
      6          1           0        1.157440   -0.579976    0.828037
      7          1           0        1.157437   -0.427117   -0.916292
      8          1           0        1.157445    1.007088    0.088252
 ---------------------------------------------------------------------

 SCF Done:  E(RHF) =  -79.1975722469     A.U. after    1 cycles

 The electronic state is 1-A.
 Alpha  occ. eigenvalues --  -11.21078 -11.21022  -1.02256  -0.84807  -0.59830
 Alpha  occ. eigenvalues --   -0.59830  -0.50732  -0.48526  -0.48526
 Alpha virt. eigenvalues --    0.24162   0.30097   0.31597   0.31597   0.33724
 Alpha virt. eigenvalues --    0.33724   0.40642   0.73864   0.75702   0.75702
 Alpha virt. eigenvalues --    0.86171   0.86171   0.95446   1.21683   1.21683

 Mulliken atomic charges:
              1
     1  C   -0.452572
     2  H    0.150857
     3  H    0.150857
     4  H    0.150858
     5  C   -0.452572
     6  H    0.150858
     7  H    0.150857
     8  H    0.150858
 Sum of Mulliken atomic charges =   0.00000

 Dipole moment (field-independent basis, Debye):
    X=              0.0000    Y=              0.0000    Z=              0.0000  Tot=              0.0000
 Quadrupole moment (field-independent basis, Debye-Ang):
   XX=            -15.5224   YY=            -15.0416   ZZ=            -15.0416
   XY=              0.0000   XZ=              0.0000   YZ=              0.0000

  Exact polarizability:  22.867   0.000  21.900   0.000   0.000  21.900
 Approx polarizability:  16.875   0.000  17.955   0.000   0.000  17.955

                     1                      2                      3
                     A                      A                      A
 Frequencies --   311.9709               919.5655               919.5658
 Red. masses --     1.0078                 1.0564                 1.0564
 Frc consts  --     0.0578                 0.5263                 0.5263
 IR Inten    --     0.0000                 5.1604                 5.1603
 Raman Activ --     0.0000                 0.0000                 0.0000

                     4                      5                      6
                     A                      A                      A
 Frequencies --  1062.2938              1356.1507              1356.1513
 Red. masses --     3.6389                 1.4499                 1.4499
 Frc consts  --     2.4194                 1.5710                 1.5710
 IR Inten    --     0.0000                 0.0000                 0.0000
 Raman Activ --    16.1488                 4.3180                 4.3179

                     7                      8                      9
                     A                      A                      A
 Frequencies --  1581.6795              1582.2243              1659.5399
 Red. masses --     1.2073                 1.1996                 1.0254
 Frc consts  --     1.7795                 1.7694                 1.6639
 IR Inten    --     0.0000                 4.4974                 0.0000
 Raman Activ --     5.0004                 0.0000                46.7905

                    10                     11                     12
                     A                      A                      A
 Frequencies --  1659.5399              1663.1226              1663.1227
 Red. masses --     1.0254                 1.0647                 1.0647
 Frc consts  --     1.6639                 1.7352                 1.7352
 IR Inten    --     0.0000                10.6330                10.6331
 Raman Activ --    46.7905                 0.0000                 0.0000

                    13                     14                     15
                     A                      A                      A
 Frequencies --  3183.6364              3191.1390              3239.1823
 Red. masses --     1.0331                 1.0366                 1.1004
 Frc consts  --     6.1693                 6.2193                 6.8028
 IR Inten    --    72.1392                 0.0000                 0.0000
 Raman Activ --     0.0000               239.1256               154.3330

                    16                     17                     18
                     A                      A                      A
 Frequencies --  3239.1860              3266.0050              3266.0088
 Red. masses --     1.1004                 1.1014                 1.1014
 Frc consts  --     6.8028                 6.9217                 6.9217
 IR Inten    --     0.0000                96.5503                96.5507
 Raman Activ --   154.3329                 0.0000                 0.0000

 - Thermochemistry -
 -------------------
 Temperature   298.150 Kelvin.  Pressure   1.00000 Atm.
 Atom     1 has atomic number  6 and mass  12.00000

 Molecular mass:    30.04695 amu.
 Principal axes and moments of inertia in atomic units:
                           1         2         3
     Eigenvalues --    22.06949  90.12854  90.12856
           X            1.00000   0.00000   0.00000
           Y            0.00000   1.00000   0.00000
           Z            0.00000   0.00000   1.00000
 This molecule is an asymmetric top.
 Rotational symmetry number  1.
 Rotational temperatures (Kelvin)      3.92460     0.96100     0.96100
 Rotational constants (GHZ):          81.77540    20.02408    20.02408
 Zero-point vibrational energy     210064.8 (Joules/Mol)
                                   50.20668 (Kcal/Mol)
 Warning -- explicit consideration of   1 degrees of freedom as
           vibrations may cause significant error
 Vibrational temperatures:    448.86  1323.05  1323.05  1528.40  1951.20
          (Kelvin)           1951.20  2275.68  2276.47  2387.70  2387.70
                             2392.86  2392.86  4580.54  4591.33  4660.45
                             4660.46  4699.05  4699.05

 Zero-point correction=                           0.080009 (Hartree/Particle)
 Thermal correction to Energy=                    0.083411
 Thermal correction to Enthalpy=                  0.084356
 Thermal correction to Gibbs Free Energy=         0.056930
 Sum of electronic and zero-point Energies=            -79.117563
 Sum of electronic and thermal Energies=               -79.114161
 Sum of electronic and thermal Enthalpies=             -79.113217
 Sum of electronic and thermal Free Energies=          -79.140642

                     E (Thermal)             CV                S
                      KCal/Mol        Cal/Mol-Kelvin    Cal/Mol-Kelvin
 Total                   52.341              9.401             57.722
 Electronic               0.000              0.000              0.000
 Translational            0.889              2.981             36.134
 Rotational               0.889              2.981             19.822
 Vibrational             50.564              3.439              1.766
 Vibration     1          0.700              1.651              1.352

 Optimization completed.
    -- Stationary point found.
 Normal termination of Gaussian 09 at Sat Jul  8 19:21:57 2017.
